LAMMPS (15 May 2015)
Lattice spacing in x,y,z = 7.374 4.25738 5.4054
Created orthogonal box = (0 0 0) to (4.916 8.51476 5.4054)
  2 by 4 by 2 MPI processor grid
Created 18 atoms
Replicating atoms ...
  orthogonal box = (0 0 0) to (19.664 17.0295 43.2432)
  2 by 2 by 4 MPI processor grid
  1152 atoms
Setting atom values ...
  384 settings made for charge
Setting atom values ...
  768 settings made for charge
PPPM initialization ...
  G vector (1/distance) = 0.300227
  grid = 18 15 30
  stencil order = 5
  estimated absolute RMS force accuracy = 0.00127241
  estimated relative force accuracy = 8.8364e-05
  using single precision FFTs
  3d grid and FFT values/proc = 3136 576
The effective maximum frequncy is now 125.000000 inverse time unit with alpha value as 4!
Neighbor list info ...
  2 neighbor list requests
  update every 1 steps, delay 0 steps, check yes
  master list distance cutoff = 12
Setting up run ...
Memory usage per processor = 78.0225 Mbytes
Step Temp Press TotEng Volume Lx Ly Lz Pxx Pyy Pzz Pxy Pyz Pxz 
       0            0   -34025.931   -22348.836    14480.788       19.664    17.029524      43.2432   -37468.312   -37466.746   -27142.736 4.9091537e-07    1.0689772 -7.9136962e-07 
     100    175.53198     9094.885   -22337.584    14679.506     19.75354    17.107068    43.440109    5745.3936     6379.508    15159.754   -37.099958   -65.135053   -1034.6904 
     200    152.62331    45695.668   -22328.702    14919.266    19.860505    17.199702    43.675335     44113.74    45073.671    47899.592   -868.73609    -4.518328     677.9269 
     300    178.22976    24412.281    -22319.14    14936.044    19.867947    17.206147    43.691701    27555.827    25544.681    20136.334    1344.5908   -20.100021   -534.10213 
     400    245.16688   -23020.974     -22310.3    14815.091    19.814171    17.159576    43.573442   -22514.746   -22675.677     -23872.5   -679.70542    771.51453   -70.283764 
     500    218.89763   -44722.851   -22301.208    14880.492    19.843285    17.184789    43.637466   -49366.789   -49930.669   -34871.094   -473.52077   -1197.4793    707.80434 
     600    281.55161   -19026.446   -22294.514    14968.476    19.882317    17.218592    43.723302   -22367.532   -20578.982   -14132.824    1316.7246     822.2472   -1189.5769 
     700    297.75948    18501.479    -22285.62    14937.843    19.868745    17.206838    43.693455    22899.924    19294.975    13309.538   -324.05277   -1689.0044    771.61721 
     800    325.58097    26688.332   -22279.831    14833.329    19.822298    17.166614    43.591314    27660.211    28753.983    23650.803   -986.17509     2669.102    1393.8171 
     900    350.79471    4670.3475   -22275.042    14839.478    19.825037    17.168986    43.597338     3852.855    311.22787    9846.9597    1602.7714   -1240.2887   -1204.3798 
    1000    347.76124   -12779.355   -22271.243    14897.396    19.850796    17.191294    43.653984   -14634.359   -15456.502   -8247.2049   -2160.2569    836.50424   -3339.3297 
    1100    355.22177   -8580.2135   -22266.745    14972.962    19.884303    17.220312    43.727669   -7872.5257   -7919.4566   -9948.6584   -959.96991   -445.98473    1278.0024 
    1200     384.3785    5834.8087   -22262.339    14953.932    19.875875    17.213013    43.709136    1465.7439    10632.463    5406.2189    810.73801   -2167.0034   -138.06675 
    1300    414.62931    5125.5404   -22258.311     14906.78    19.854963    17.194903    43.663147    4979.5237    3129.8305    7267.2669   -1148.9646    2010.7174   -1868.5306 
    1400    417.62462   -1297.7997   -22254.706    14892.519    19.848629    17.189418    43.649219    1271.4928   -5717.5618    552.66981   -2318.9198   -1013.9743    2843.5863 
    1500    406.22539   -3970.3912   -22252.388    14927.007    19.863939    17.202677    43.682888   -10246.667    1467.6288   -3132.1353    5379.9129   -3836.8635   -2485.1235 
    1600     427.8802    579.88292   -22248.886    14964.953    19.880757    17.217241    43.719872    3760.2756   -2984.9993    964.37246   -822.28474   -1612.6332    3511.4904 
    1700    440.91952    2763.1334   -22246.097    14977.791     19.88644    17.222163     43.73237    3018.3652    920.52351    4350.5115     1059.585    4091.0255   -3248.9076 
    1800    422.54661    5409.7834   -22246.147    14928.646    19.864666    17.203306    43.684486    4633.2735    4801.0336    6795.0431   -2045.8043   -2611.7643    709.52937 
    1900    475.84564    665.52379     -22244.3    14921.618    19.861548    17.200606     43.67763    1343.6514   -466.14054    1119.0605   -435.81233   -1069.8898   -1451.7563 
    2000    452.09883   -2379.9303   -22240.238    14944.469    19.871682    17.209382    43.699914   -3015.5117   -2167.9629   -1956.3162   -457.72319    5505.4835    1838.7569 
    2100    467.38228    686.51003   -22237.764    14959.441    19.878316    17.215127    43.714503    -1563.199    1061.4312    2561.2978    1849.7705    1423.6391   -3036.6827 
    2200    483.98608     5408.418   -22236.166    14943.187    19.871114     17.20889    43.698665     1782.354    8248.1222    6194.7779   -1580.4122   -1086.7786    2674.3954 
    2300    478.67839    137.86603   -22234.933     14966.44    19.881415    17.217811    43.721319     2984.556   -378.47024   -2192.4876    2263.0766   -2798.2607    1688.4116 
    2400    478.65169   -1058.8979   -22233.433    14980.926    19.887828    17.223365    43.735421   -1602.4094   -1071.4732   -502.81108    2214.9289    4042.0969    632.51684 
    2500    489.82007    292.19755   -22230.412     14982.26    19.888418    17.223876    43.736719   -1014.6258   -627.93532    2519.1538   -2386.7743    1447.3485   -214.32919 
    2600    477.52765    1522.0946   -22226.648    14953.823    19.875827    17.212972     43.70903   -216.14654    3910.7613    871.66907    832.86166   -2429.3102    1170.3828 
    2700    530.74751   -3086.6536   -22225.486    14985.057    19.889656    17.224948    43.739441   -2902.5225   -2708.0243   -3649.4139   -112.63676   -3627.9778   -873.04514 
    2800    497.96078    541.05513   -22223.969    15000.463    19.896469    17.230848    43.754424    122.87058   -290.27244    1790.5673   -1909.2051   -1842.7558   -2184.9717 
    2900    509.39175    -1051.458   -22223.028    15001.617     19.89698     17.23129    43.755547   -3885.8518   -88.421141    819.89905   -134.09991    1407.7362   -187.09057 
    3000    518.86335    612.67964   -22221.574     14967.38    19.881832    17.218172    43.722235     1974.933    136.87703   -273.77107     445.7335   -2143.3249    3399.0728 
Loop time of 6.85841 on 16 procs for 3000 steps with 1152 atoms

Pair  time (%) = 4.40895 (64.2853)
Kspce time (%) = 1.33395 (19.4498)
Neigh time (%) = 0.000678316 (0.00989028)
Comm  time (%) = 0.434429 (6.33425)
Outpt time (%) = 0.00149591 (0.0218114)
Other time (%) = 0.678912 (9.89897)

Nlocal:    72 ave 74 max 70 min
Histogram: 2 0 3 0 0 5 0 5 0 1
Nghost:    2931.56 ave 2941 max 2925 min
Histogram: 3 2 0 3 2 1 3 0 1 1
Neighs:    20229.9 ave 21028 max 19340 min
Histogram: 3 1 3 0 0 1 0 4 1 3

Total # of neighbors = 323679
Ave neighs/atom = 280.971
Neighbor list builds = 1
Dangerous builds = 0
QBMSST parameters:
  Shock in z direction
  Cell mass-like parameter qmass (units of mass^2/length^4) =  4.00000e+01
  Shock velocity =  7.80000e+01
  Artificial viscosity (units of mass/length/time) =  0.00000e+00
  Initial pressure calculated on first step
  Initial volume calculated on first step
  Initial energy calculated on first step
PPPM initialization ...
  G vector (1/distance) = 0.2994
  grid = 18 15 30
  stencil order = 5
  estimated absolute RMS force accuracy = 0.00131556
  estimated relative force accuracy = 9.13609e-05
  using single precision FFTs
  3d grid and FFT values/proc = 3136 576
The effective maximum frequncy is now 125.000000 inverse time unit with alpha value as 4!
Setting up run ...
Fix QBMSST v0 =  1.49674e+04
Fix QBMSST p0 = -2.74397e+02
Fix QBMSST e0 = to be -2.22216e+04
Fix QBMSST initial strain rate of -4.37923e-01 established by reducing temperature by factor of  5.00000e-02
Memory usage per processor = 78.0225 Mbytes
Step T_qm Press TotEng Volume Lx Ly Lz Pzz dhug dray lgr_vel lgr_pos 
       0          300    336.80413   -22221.576     14967.38    19.881832    17.218172    43.722235   -543.61108    12.971584   -269.21454            0            0 
     100    299.45912    17025.987   -22219.494    14318.699    19.881832    17.218172    41.827326    43828.015   -3.1976406   -23392.445    3.3804974   -7.6336047 
     200    298.91005    91073.638   -22218.686    13270.863    19.881832    17.218172    38.766422    179737.77    34.467486     3490.812    8.8411178   -14.832985 
     300    298.10016    165781.91   -22219.139    12627.911    19.881832    17.218172    36.888252    283124.01    90.347805    39978.425    12.191753   -21.521368 
     400    297.39859    118791.58   -22218.578    12945.969    19.881832    17.218172    37.817354    188677.04   -54.401597   -21374.837    10.534246   -28.186144 
     500    296.66928    137334.43   -22219.243    12740.291    19.881832    17.218172    37.216533    225987.15   -13.826119   -5465.3708    11.606103   -34.908675 
     600    295.86386    187301.25   -22218.727    12190.024    19.881832    17.218172    35.609109    283061.92   -14.923567   -5645.5042     14.47373   -41.408948 
     700    295.43572    247196.31   -22220.932     11285.93    19.881832    17.218172    32.968099    344631.24   -93.571654   -38146.451    19.185263   -47.557375 
     800    296.62742    512869.12   -22235.576    9039.2337    19.881832    17.218172    26.405122    688556.53    733.50361    72011.811    30.893546   -52.928418 
     900    308.08862    573524.46   -22283.112    8465.2925    19.881832    17.218172    24.728543     608061.3    -257.7364   -68201.561    33.884544   -57.339002 
    1000    337.54708    675557.55   -22338.102     8242.633    19.881832    17.218172    24.078117    709923.84    465.70143    10493.433    35.044897    -61.67528 
Loop time of 4.3191 on 16 procs for 1000 steps with 1152 atoms

Pair  time (%) = 2.68262 (62.1105)
Kspce time (%) = 0.63249 (14.644)
Neigh time (%) = 0.0290523 (0.672646)
Comm  time (%) = 0.181494 (4.20212)
Outpt time (%) = 0.00128298 (0.0297047)
Other time (%) = 0.792165 (18.341)

Nlocal:    72 ave 76 max 67 min
Histogram: 1 1 2 1 2 2 0 4 1 2
Nghost:    4613.88 ave 4642 max 4574 min
Histogram: 2 0 2 2 1 0 1 2 2 4
Neighs:    36356.5 ave 38632 max 34013 min
Histogram: 2 1 3 1 0 1 3 2 0 3

Total # of neighbors = 581704
Ave neighs/atom = 504.951
Neighbor list builds = 32
Dangerous builds = 0
System init for write_restart ...
PPPM initialization ...
  G vector (1/distance) = 0.304493
  grid = 18 15 20
  stencil order = 5
  estimated absolute RMS force accuracy = 0.00130321
  estimated relative force accuracy = 9.05028e-05
  using single precision FFTs
  3d grid and FFT values/proc = 2688 540
The effective maximum frequncy is now 125.000000 inverse time unit with alpha value as 4!
Reading restart file ...
  restart file = 15 May 2015, LAMMPS = 15 May 2015
  orthogonal box = (-0.108916 -0.094324 9.58254) to (19.7729 17.1238 33.6607)
  2 by 2 by 4 MPI processor grid
  1152 atoms
QBMSST parameters:
  Shock in z direction
  Cell mass-like parameter qmass (units of mass^2/length^4) =  4.00000e+01
  Shock velocity =  7.80000e+01
  Artificial viscosity (units of mass/length/time) =  0.00000e+00
  Initial pressure calculated on first step
  Initial volume calculated on first step
  Initial energy calculated on first step
Resetting global state of Fix shock Style qbmsst from restart file info
PPPM initialization ...
  G vector (1/distance) = 0.304493
  grid = 18 15 20
  stencil order = 5
  estimated absolute RMS force accuracy = 0.00130321
  estimated relative force accuracy = 9.05028e-05
  using single precision FFTs
  3d grid and FFT values/proc = 2688 540
The effective maximum frequncy is now 125.000000 inverse time unit with alpha value as 4!
Neighbor list info ...
  2 neighbor list requests
  update every 1 steps, delay 0 steps, check yes
  master list distance cutoff = 12
Setting up run ...
Memory usage per processor = 78.0026 Mbytes
Step T_qm Press TotEng Volume Lx Ly Lz Pzz dhug dray lgr_vel lgr_pos 
    1000    337.54708    675566.62   -22338.122     8242.633    19.881832    17.218172    24.078117    709938.77    465.79187    10508.367    35.044897            0 
    1100    382.30252    675589.41   -22390.831    8215.2858    19.881832    17.218172    23.998231    708771.58    615.26145    6495.7203    35.187412   -4.2952002 
    1200    447.28214     653541.8   -22441.399    8184.4227    19.881832    17.218172    23.908075     676944.7     535.9729   -28542.439     35.34825   -8.5611463 
    1300    529.21207    668934.16   -22490.135    8131.1593    19.881832    17.218172    23.752484    703107.54    846.20779   -7921.6164    35.625823   -12.793013 
    1400    626.93131    684604.27   -22537.088    8080.4738    19.881832    17.218172    23.604423    710666.83    1019.6509   -5636.1086    35.889962   -17.020882 
    1500    739.57469    720581.53   -22578.443    8044.7837    19.881832    17.218172    23.500166    753051.64    1439.2683    33035.172    36.075955   -21.229464 
    1600    865.85726    698986.83   -22618.439    8039.9448    19.881832    17.218172    23.486031    713170.43    1280.5128   -7349.5267    36.101172   -25.428317 
    1700     1003.604    696962.46   -22645.788    8043.7778    19.881832    17.218172    23.497228    695643.47    1248.3879   -24477.659    36.081197   -29.613829 
    1800    1149.8328    712195.45   -22666.541    8011.9914    19.881832    17.218172    23.404374    702898.68    1345.6356   -20529.811    36.246847   -33.783693 
    1900    1302.3721    709308.06   -22685.016    7998.2194    19.881832    17.218172    23.364144    721897.77    1536.1828   -2963.6855    36.318617   -37.961816 
    2000    1460.4074    728991.71   -22698.436    7983.2638    19.881832    17.218172    23.320456    717732.06    1539.0143   -8685.5058    36.396556   -42.119627 
    2100      1622.35    715945.61   -22708.292    7970.9437    19.881832    17.218172    23.284467    702581.14    1451.7649   -25118.322     36.46076   -46.273361 
    2200    1785.9643    727566.95   -22708.681    7994.2845    19.881832    17.218172     23.35265    730293.42    1673.7903    5022.5523    36.339123   -50.426889 
    2300    1951.0166    736614.19   -22713.099    7965.2771    19.881832    17.218172    23.267914    741467.45    1749.5151    13178.383     36.49029   -54.577872 
    2400    2116.2102    750788.62    -22711.98     7959.667    19.881832    17.218172    23.251526    761139.91    1885.2581    32267.107    36.519527   -58.743185 
    2500    2278.7574    727114.02   -22696.226    7983.4513    19.881832    17.218172    23.321004    725703.77    1590.6203   -694.28369    36.395579   -62.900454 
    2600    2436.9392    733211.01   -22684.693    7968.3944    19.881832    17.218172     23.27702    746809.23    1694.7502    18844.511    36.474045   -67.065749 
    2700    2590.8157    740463.33   -22669.977    7958.7668    19.881832    17.218172    23.248896    740028.71    1588.2561    11062.253    36.524218   -71.216449 
    2800     2739.888    758220.78   -22654.646    7968.5795    19.881832    17.218172    23.277561    743105.05    1567.3779    15159.589    36.473081   -75.362908 
    2900    2883.3868    757280.96    -22636.97    7944.7212    19.881832    17.218172    23.207867    748724.65    1530.7817    18296.757    36.597414   -79.524525 
    3000    3019.0968     726632.9   -22612.399     8001.801    19.881832    17.218172    23.374606    706445.45    1181.6384   -18043.335    36.299952   -83.681266 
    3100    3146.3814    724523.19    -22589.15    8002.9901    19.881832    17.218172     23.37808    693720.89    1011.4994   -30644.177    36.293756   -87.839486 
    3200    3266.4362     743693.9   -22564.076     8004.927    19.881832    17.218172    23.383738    740826.52    1273.0437    16662.985    36.283662   -92.004832 
    3300    3376.6171    748507.43   -22537.172    7976.5384    19.881832    17.218172     23.30081    750814.51    1235.2077    23697.173    36.431604   -96.177693 
    3400    3478.0818    735841.13   -22504.526    8013.7864    19.881832    17.218172    23.409618     720739.6    932.66487   -2502.1201    36.237493   -100.35562 
    3500    3569.2028    706948.44   -22474.199    8072.6221    19.881832    17.218172    23.581487    669540.88    505.71499   -47579.024     35.93088   -104.54316 
    3600      3649.91    705603.16   -22446.065    8080.2892    19.881832    17.218172    23.603884    690765.19    570.16306   -25556.952    35.890924   -108.72792 
    3700    3721.4592     754225.1   -22409.198    8013.9269    19.881832    17.218172    23.410028    730001.15    680.15472    6774.0579     36.23676   -112.92032 
    3800    3782.9566    736184.93    -22396.52    8042.7245    19.881832    17.218172    23.494151     724051.7    618.42232    3820.9758    36.086686   -117.12471 
    3900    3837.3013    739501.53   -22370.924    8066.9059    19.881832    17.218172    23.564789    730213.42     593.5204    12498.743    35.960669   -121.30764 
    4000    3886.1783    739933.06   -22359.254    8084.4841    19.881832    17.218172    23.616138    722518.08    511.41355    6632.4124    35.869063   -125.52184 
    4100    3926.6918    733392.58   -22317.866    8058.2082    19.881832    17.218172    23.539381    722048.36    349.99903    3428.6976    36.005996   -129.72858 
    4200    3956.0526     723207.7   -22296.188    8106.5983    19.881832    17.218172    23.680737    686700.75    57.382809   -26883.958    35.753819   -133.94946 
    4300    3975.6605    713099.92   -22257.229    8133.8647    19.881832    17.218172    23.760387    681240.89   -91.652573   -29506.765    35.611724   -138.16812 
    4400    3982.9909    699545.44   -22225.966    8152.8098    19.881832    17.218172    23.815729    665319.72   -295.10725   -43456.712    35.512995   -142.40132 
    4500    3979.7623    690361.14   -22195.621    8152.2576    19.881832    17.218172    23.814115    687869.73   -236.67419   -20964.161    35.515873   -146.62974 
    4600    3970.1599     690400.6   -22184.664    8159.6848    19.881832    17.218172    23.835812    668389.88   -407.29855   -39671.213    35.477167   -150.85984 
    4700    3955.8278    689950.13   -22170.583    8166.9245    19.881832    17.218172     23.85696    681115.88    -357.9879   -26191.928    35.439439   -155.10372 
    4800    3937.9354    719242.26   -22173.771     8163.714    19.881832    17.218172    23.847581    697006.73   -234.51967   -10635.137     35.45617   -159.36629 
    4900    3919.3248    693623.91    -22160.04    8182.0791    19.881832    17.218172    23.901229    680145.56   -387.88952    -25585.43    35.360463   -163.61379 
    5000    3898.1778    688013.22   -22139.888    8187.1673    19.881832    17.218172    23.916092    681641.59   -441.67312   -23559.978    35.333947    -167.8634 
    5100    3867.0621    725118.53    -22120.16    8128.9133    19.881832    17.218172    23.745923    705760.18    -379.8359   -5502.6678    35.637528   -172.10449 
    5200    3833.9463    719690.88   -22119.359     8147.031    19.881832    17.218172    23.798848    718895.24   -275.40705    9517.5224     35.54311   -176.35764 
    5300    3802.0368    710497.83   -22129.623    8180.3185    19.881832    17.218172    23.896086    733317.71     -113.642    27403.531    35.369638   -180.62072 
    5400    3772.3573     674635.8   -22129.252    8208.3478    19.881832    17.218172    23.977964    651562.54   -674.69773    -51435.21    35.223568   -184.87961 
    5500     3740.345    700741.28   -22120.148    8171.9775    19.881832    17.218172    23.871721    712472.61   -299.56438    5690.5572    35.413106   -189.13932 
    5600     3708.626    700920.11   -22129.034    8164.3507    19.881832    17.218172    23.849441    706108.74   -321.45593   -1466.8764    35.452852   -193.39889 
    5700    3678.8752    695504.89   -22127.728    8197.9299    19.881832    17.218172    23.947532    690164.23   -414.14042   -13917.493    35.277859   -197.65801 
    5800    3645.9309    709965.32   -22125.817    8137.5265    19.881832    17.218172    23.771083    695505.71   -428.26614   -14860.937    35.592641   -201.90652 
    5900    3614.2055    750661.21   -22123.867    8139.5746    19.881832    17.218172    23.777066    738350.75   -126.20059    28197.202    35.581968   -206.14957 
    6000    3581.1115    722008.85   -22119.296    8148.3951    19.881832    17.218172    23.802832    694167.09   -451.33992   -15068.695    35.536002   -210.39947 
    6100    3548.3956    713610.65   -22129.134    8159.1532    19.881832    17.218172    23.834259    715994.54   -254.34522    7878.1206    35.479938   -214.64104 
    6200    3520.4494    728288.38    -22142.18    8139.7696    19.881832    17.218172    23.777636    727757.85    -140.5865     17624.59    35.580952   -218.89363 
    6300    3493.4288    670400.18   -22128.559    8232.4795    19.881832    17.218172    24.048457     656829.4   -620.43337   -43657.471     35.09781   -223.15155 
    6400    3463.6406    711242.14   -22133.006    8179.8944    19.881832    17.218172    23.894847    705746.68    -298.8785   -211.62482    35.371849   -227.42283 
    6500    3435.8768    714556.17   -22139.582    8159.8193    19.881832    17.218172    23.836204    710752.98   -256.17297    2705.8773    35.476466   -231.68216 
    6600    3408.4746    741783.67   -22143.968    8135.8004    19.881832    17.218172    23.766041    746929.05   0.15509881      36382.8    35.601637    -235.9418 
    6700    3384.0619    719097.15    -22150.78    8158.6209    19.881832    17.218172    23.832704    724554.13   -119.97343    16382.332    35.482712   -240.20995 
    6800    3359.4557     684347.4    -22143.69    8183.8176    19.881832    17.218172    23.906308    683654.33   -417.12995   -21895.764    35.351403   -244.46507 
    6900    3333.6718    679975.84   -22147.151    8183.9824    19.881832    17.218172    23.906789    676072.11   -458.49811   -29460.836    35.350544    -248.7266 
    7000    3310.3443    682061.59   -22160.341    8196.5546    19.881832    17.218172    23.943514    653095.38   -568.82604    -51129.44    35.285026   -252.96829 
    7100    3292.4682    678617.04   -22171.558    8191.1724    19.881832    17.218172    23.927792    682902.01   -323.57761   -21882.836    35.313075   -257.21878 
    7200     3277.731    701940.66   -22171.397    8181.3537    19.881832    17.218172     23.89911    696186.13   -236.42176   -9620.3295    35.364243   -261.47073 
    7300    3262.8024       715432   -22182.132    8157.6636    19.881832    17.218172    23.829907    721418.99   -37.751799    13147.584    35.487701   -265.73155 
    7400    3253.7339    714844.38    -22202.85    8126.6386    19.881832    17.218172    23.739278    709186.59    -79.45597   -2312.9385    35.649382   -269.99041 
    7500    3248.4747    681652.39   -22212.161    8206.3352    19.881832    17.218172    23.972085    690641.21   -120.60088   -12565.945    35.234057   -274.23849 
    7600    3244.9825    684396.07   -22214.123     8178.796    19.881832    17.218172    23.891639    693111.18   -116.33538   -12961.405    35.377572   -278.49364 
    7700    3243.8947    716732.97   -22219.586    8108.6358    19.881832    17.218172    23.686689    697353.52   -121.90936   -16019.189    35.743201   -282.73249 
    7800    3244.5061    710508.35   -22232.082    8142.7727    19.881832    17.218172    23.786409    692274.75   -89.010587   -17546.032    35.565302   -286.97442 
    7900    3249.3173    722855.33   -22232.201    8119.7501    19.881832    17.218172    23.719156    716387.42    66.826358    4171.1521     35.68528   -291.21177 
    8000    3253.3521    698060.87   -22230.764    8146.3185    19.881832    17.218172    23.796766    693516.43   -83.122065   -15935.421    35.546824   -295.43904 
    8100    3259.2227    736749.28   -22248.845    8131.3803    19.881832    17.218172    23.753129    712786.38    106.69382    1780.2203    35.624672   -299.66244 
    8200    3265.6709    748198.82   -22243.641    8099.4804    19.881832    17.218172    23.659944    754560.47    363.98474    40235.143    35.790913   -303.90896 
    8300    3272.3524    714362.37   -22237.134    8162.1085    19.881832    17.218172    23.842892    709837.34    67.673071    2028.4242    35.464537   -308.16727 
    8400    3278.2137    692153.99   -22246.126    8177.5349    19.881832    17.218172    23.887955    676903.69   -126.14351   -29300.121    35.384145    -312.4114 
    8500    3285.0192    696777.26   -22236.249    8149.0144    19.881832    17.218172    23.804641     687659.7   -103.59318   -21511.645    35.532774   -316.65716 
    8600    3290.2664    689531.56   -22235.216    8172.0497    19.881832    17.218172    23.871931    660280.73   -285.45361   -46493.814     35.41273   -320.88421 
    8700    3295.2157     699502.2   -22235.233    8151.3413    19.881832    17.218172    23.811439    701554.72   -6.8209641   -7374.5175    35.520648   -325.13193 
    8800    3299.4665    744790.77   -22245.342    8111.1434    19.881832    17.218172    23.694014    748733.19    336.48433     35621.39    35.730133   -329.37769 
    8900    3307.3755    700258.37   -22246.663    8163.3482    19.881832    17.218172    23.846513    701359.16    40.417308    -6320.769    35.458076   -333.62623 
    9000    3315.6153    693972.14   -22248.712    8163.5493    19.881832    17.218172      23.8471    700586.99    40.960371   -7072.0152    35.457028   -337.88181 
    9100    3324.0365    674306.65   -22239.912    8179.1254    19.881832    17.218172    23.892601    693249.89   -28.966634   -12788.434    35.375856   -342.14807 
    9200    3331.0341    692924.82   -22240.154    8167.2022    19.881832    17.218172    23.857771    698236.57    -1.446502   -9042.3445    35.437992   -346.38695 
    9300    3336.3735     723138.9   -22230.572    8115.2128    19.881832    17.218172    23.705901    738891.49    218.90021    26203.114    35.708926   -350.64403 
    9400    3341.4233    720500.39    -22236.96    8150.2413    19.881832    17.218172    23.808225    724928.41    165.47802     15884.72     35.52638   -354.89141 
    9500    3348.0898    712252.24   -22241.273    8156.1427    19.881832    17.218172    23.825465    723188.35    172.49449    14758.704    35.495626   -359.14019 
    9600    3355.8495    703872.92   -22246.145    8146.6051    19.881832    17.218172    23.797603    718104.14    144.68038    8682.1083     35.54533    -363.3928 
    9700    3366.1067    712096.15   -22248.128    8157.8503    19.881832    17.218172    23.830453    701170.67    39.213832   -7081.3064    35.486728   -367.65726 
    9800    3376.0409    700135.78   -22253.564    8133.1324    19.881832    17.218172    23.758247     692428.4   -24.159471   -18395.454    35.615541   -371.89573 
    9900    3387.7696    696067.13    -22264.26    8175.3835    19.881832    17.218172     23.88167    699055.81    91.746052    -7371.846    35.395356   -376.13466 
   10000    3401.5852    715264.23    -22253.55    8129.2974    19.881832    17.218172    23.747045    720491.21    173.99229    9268.3257    35.635526   -380.38703 
   10100    3411.6173    712660.31    -22254.28    8157.3819    19.881832    17.218172    23.829084    692182.97   -4.9174651   -16117.742    35.489168   -384.63177 
   10200    3421.4716    735384.59   -22252.134    8130.4796    19.881832    17.218172    23.750498    737000.43    288.72127     25900.55    35.629366   -388.88313 
   10300     3431.699     698073.8   -22243.916    8169.9155    19.881832    17.218172    23.865697    696153.97   -1.9345158   -10842.633    35.423852   -393.13158 
   10400    3440.6789    703759.01   -22244.024    8153.9021    19.881832    17.218172    23.818919    703640.18    39.552738   -5022.6079    35.507303    -397.3859 
   10500    3448.3338    736397.88   -22244.379    8113.0997    19.881832    17.218172    23.699729    732239.55    216.28027     19331.31    35.719938   -401.62233 
   10600    3457.8489    723516.28    -22260.77    8096.5147    19.881832    17.218172    23.651281    742261.34    330.97037    27627.444    35.806368   -405.86426 
   10700    3472.5751    704613.99    -22263.77    8141.2144    19.881832    17.218172    23.781856    700451.42    75.739812   -9531.5122    35.573423   -410.11141 
   10800    3485.2553    709680.92   -22252.642    8111.5849    19.881832    17.218172    23.695303     703642.3     36.78272   -9423.5623    35.727832   -414.33541 
   10900    3492.6379    684273.86   -22238.133    8175.9689    19.881832    17.218172     23.88338    670917.32    -196.6996   -35449.426    35.392305   -418.56784 
   11000    3496.5384    703908.29   -22228.741    8132.6239    19.881832    17.218172    23.756762    696857.57   -76.386433   -14019.195    35.618191   -422.81894 
Loop time of 57.4968 on 16 procs for 10000 steps with 1152 atoms

Pair  time (%) = 37.784 (65.715)
Kspce time (%) = 8.94688 (15.5607)
Neigh time (%) = 0.365851 (0.636299)
Comm  time (%) = 2.33238 (4.05654)
Outpt time (%) = 0.0593054 (0.103146)
Other time (%) = 8.00832 (13.9283)

Nlocal:    72 ave 78 max 68 min
Histogram: 1 3 1 2 3 2 1 1 1 1
Nghost:    4612.75 ave 4653 max 4575 min
Histogram: 2 1 2 2 2 1 1 3 0 2
Neighs:    36875.5 ave 42854 max 32479 min
Histogram: 2 2 0 5 2 2 0 1 1 1

Total # of neighbors = 590008
Ave neighs/atom = 512.16
Neighbor list builds = 310
Dangerous builds = 0
