LAMMPS (15 May 2015)
Lattice spacing in x,y,z = 3.97836 3.97836 3.97836
Created orthogonal box = (0 0 0) to (3.97836 3.97836 3.97836)
  4 by 4 by 4 MPI processor grid
Created 5 atoms
Replicating atoms ...
  orthogonal box = (0 0 0) to (19.8918 19.8918 39.7836)
  2 by 4 by 8 MPI processor grid
  1250 atoms
The effective maximum frequncy is now 0.333333 inverse time unit with alpha value as 6!
Neighbor list info ...
  1 neighbor list requests
  update every 10 steps, delay 0 steps, check no
  master list distance cutoff = 12.5
Setting up run ...
Memory usage per processor = 40.9712 Mbytes
Step Temp Press TotEng Volume 
       0          110   -15717.707   -110869.31    15741.751 
     100    238.42348    3887.0223   -109890.08    15741.751 
     200    303.51927    2117.6246   -109236.25    15741.751 
     300    379.82903   -3417.4637   -108573.83    15741.751 
     400    466.38638   -1798.1346   -108028.69    15741.751 
     500    522.13556    2958.7048   -107526.65    15741.751 
     600    571.64517    2991.3413   -107070.15    15741.751 
     700    609.57443   -4037.4025      -106798    15741.751 
     800    636.81162    5262.0331   -106555.93    15741.751 
     900    687.11673     3561.495   -106222.38    15741.751 
    1000    722.79769   -2283.1689   -105999.47    15741.751 
    1100     753.5045    2791.9439   -105828.77    15741.751 
    1200    774.48183    2345.6072   -105678.27    15741.751 
    1300    769.04789    -1265.414   -105634.37    15741.751 
    1400    818.70543   -1106.7661   -105441.17    15741.751 
    1500    818.88476    3359.5496   -105323.79    15741.751 
    1600    824.86682     1342.201   -105192.06    15741.751 
    1700    831.32697    -952.1709   -104982.36    15741.751 
    1800    890.72122     1715.009   -104733.23    15741.751 
    1900    901.04007    256.46603   -104685.47    15741.751 
    2000    908.88407   -2920.4847   -104628.52    15741.751 
    2100    933.55169   -47.440281    -104444.6    15741.751 
    2200    931.37564   -247.00054   -104537.18    15741.751 
    2300    914.39062   -1030.8047   -104560.64    15741.751 
    2400    929.27647    -129.0719   -104301.08    15741.751 
    2500    921.71663   -2955.4711   -104392.25    15741.751 
    2600    935.48221    310.85809   -104463.01    15741.751 
    2700    946.12789    710.13297   -104414.21    15741.751 
    2800    928.82272     -2103.14   -104357.31    15741.751 
    2900    915.10075   -2148.2961   -104276.49    15741.751 
    3000    956.00108    1485.0247   -104363.43    15741.751 
    3100    898.17148    1822.3532   -104453.62    15741.751 
    3200    923.87245    1973.3543    -104418.7    15741.751 
    3300    905.27707    229.25262   -104378.82    15741.751 
    3400    897.77154   -2180.4091   -104458.63    15741.751 
    3500    932.14512   -1549.6212   -104440.97    15741.751 
    3600    904.25077    -628.5405   -104452.44    15741.751 
    3700    913.29077    -1186.157    -104354.3    15741.751 
    3800    939.14271    3703.5131   -104369.84    15741.751 
    3900    967.93323    4927.0058   -104296.43    15741.751 
    4000     895.8392   -2660.0025   -104373.52    15741.751 
    4100    937.30753   -597.93974   -104287.16    15741.751 
    4200    906.70167    947.27036   -104269.32    15741.751 
    4300    938.88356   -2937.7428   -104188.53    15741.751 
    4400    938.23781   -2135.2383   -104295.91    15741.751 
    4500     961.9352    693.77912   -104121.22    15741.751 
    4600    925.20114    1520.3935   -104185.05    15741.751 
    4700    957.21935   -2314.8966   -104155.93    15741.751 
    4800    932.10339    -353.3024   -104030.65    15741.751 
    4900    974.60583    312.74717   -103998.87    15741.751 
    5000    958.30467   -1398.4708   -104033.59    15741.751 
    5100    998.53392    3078.1719   -104012.69    15741.751 
    5200    999.19686    3044.8484   -103996.16    15741.751 
    5300    946.18435   -2096.3491   -103995.87    15741.751 
    5400    998.57583   -1784.9493   -103829.71    15741.751 
    5500      981.139    2864.0656   -103919.75    15741.751 
    5600    966.50268   -2694.6782   -103963.79    15741.751 
    5700    979.04033    775.07302   -103873.61    15741.751 
    5800    980.84612     379.5913   -103995.56    15741.751 
    5900    963.31597   -1963.0188   -104128.23    15741.751 
    6000    958.80823    139.45171   -104028.49    15741.751 
    6100    969.81143   -611.61887   -104093.42    15741.751 
    6200    930.14384   -3519.2136    -104145.2    15741.751 
    6300     995.8682   -294.53675   -104048.68    15741.751 
    6400    945.80362   -1382.7917   -104101.49    15741.751 
    6500    929.00135   -798.25665   -104076.72    15741.751 
    6600    963.37164     -1290.32   -104049.06    15741.751 
    6700    952.22573   -3013.0489   -103996.34    15741.751 
    6800    955.22538    5035.5047   -104055.41    15741.751 
    6900     965.7706    2729.8052   -104081.44    15741.751 
    7000    980.75268   -269.54308   -104130.09    15741.751 
    7100    968.18922    3534.1848   -104027.66    15741.751 
    7200    988.81873    4306.9553   -104063.47    15741.751 
    7300    969.24272    626.60774   -104072.38    15741.751 
    7400     986.5018    608.77921   -104138.86    15741.751 
    7500    935.99277   -865.97944   -104143.88    15741.751 
    7600    955.75075    2005.9409   -104096.41    15741.751 
    7700    981.56283    5672.7903   -104163.91    15741.751 
    7800    954.21098    1839.5134   -104107.16    15741.751 
    7900    928.54607   -2431.2538    -104089.1    15741.751 
    8000     949.5577   -149.02562   -104114.97    15741.751 
    8100    984.48945    825.60042   -104112.92    15741.751 
    8200    951.77384    249.86113   -104229.08    15741.751 
    8300    931.78113    5458.8972   -104322.47    15741.751 
    8400    929.89064    1692.9752   -104249.24    15741.751 
    8500    962.67903   -3814.6489   -104277.09    15741.751 
    8600    953.53976   -4371.3179    -104241.6    15741.751 
    8700    937.15047   -1534.4742   -104253.38    15741.751 
    8800    914.92737    1151.7372   -104276.59    15741.751 
    8900    969.32711    4371.6499   -104294.15    15741.751 
    9000    975.70164    1148.4337   -104243.22    15741.751 
    9100    925.50846   -4752.8097   -104252.67    15741.751 
    9200    905.73956    721.15821   -104308.32    15741.751 
    9300    975.09887    1247.9022   -104261.67    15741.751 
    9400    949.93034   -456.51495   -104313.54    15741.751 
    9500    944.33186   -1565.6129   -104306.16    15741.751 
    9600    908.76769   -1345.8715    -104278.1    15741.751 
    9700    926.90609    224.05643   -104300.56    15741.751 
    9800    948.53852   -3607.4602   -104319.46    15741.751 
    9900     962.6682    2396.5327   -104161.99    15741.751 
   10000    942.29848    -605.0964   -104274.14    15741.751 
   10100     957.2761   -3432.8657   -104214.09    15741.751 
   10200    973.35662    2977.0445   -104070.17    15741.751 
   10300    975.33548    1798.2608   -104045.72    15741.751 
   10400    954.49332   -4054.9284   -104058.22    15741.751 
   10500     960.4863   -3119.7611   -103974.43    15741.751 
   10600    956.27157   -3837.7979   -103944.77    15741.751 
   10700    995.63581    3319.1379   -103866.64    15741.751 
   10800    1018.1247    8964.5596   -103717.75    15741.751 
   10900    989.15041   -4255.4636   -103836.55    15741.751 
   11000    963.93595   -2891.0893    -103794.1    15741.751 
   11100    971.91333    1278.0223   -103968.05    15741.751 
   11200    967.76968    -493.1273   -104083.42    15741.751 
   11300    928.61143   -2279.2569   -104069.89    15741.751 
   11400    960.78192   -4474.3389   -104085.13    15741.751 
   11500    960.47952    3479.0914   -104023.56    15741.751 
   11600    991.00044      4397.25   -103917.56    15741.751 
   11700    992.16712   -2631.9083   -103855.28    15741.751 
   11800     1013.171    3587.3471   -103890.55    15741.751 
   11900     988.1075    2745.6607   -103806.54    15741.751 
   12000    1020.3763   -3050.0903   -103741.77    15741.751 
   12100    1013.6563    -4878.448   -103807.98    15741.751 
   12200    1010.2106    435.03309   -103762.26    15741.751 
   12300    965.72134    2857.2108   -103803.89    15741.751 
   12400    1016.3779     -1731.46   -103754.73    15741.751 
   12500    965.92403   -4136.3233    -103765.5    15741.751 
   12600    998.08773    1891.2032   -103748.55    15741.751 
   12700    1022.9904    2502.5348   -103835.56    15741.751 
   12800     934.2733   -2514.5518    -103896.4    15741.751 
   12900    992.29149   -2990.3108   -103829.87    15741.751 
   13000       976.35   -875.16942    -103886.4    15741.751 
   13100    957.65637    39.239328   -104015.93    15741.751 
   13200    994.38717     2609.895   -104031.75    15741.751 
   13300     934.4622   -1385.4485   -104157.46    15741.751 
   13400    949.22047   -23.680229   -104057.23    15741.751 
   13500    962.93842   -1689.1905   -103891.27    15741.751 
   13600     932.9405   -2554.6509   -104017.69    15741.751 
   13700    940.62825   -2557.6269   -104088.28    15741.751 
   13800     951.4495   -3252.7027   -104075.44    15741.751 
   13900    929.00221    376.16292   -104139.39    15741.751 
   14000    966.74806    2225.6379   -104245.78    15741.751 
   14100     989.7093   -1415.6817      -104136    15741.751 
   14200    970.68724   -3372.0999   -104301.75    15741.751 
   14300    974.99841    301.65594   -104257.01    15741.751 
   14400    969.13204    3451.2416   -104293.13    15741.751 
   14500    923.44632     269.9255   -104345.44    15741.751 
   14600    924.69004    1455.1391   -104287.68    15741.751 
   14700    931.54462    3564.5462   -104292.92    15741.751 
   14800    936.33596   -6581.4858   -104208.27    15741.751 
   14900    935.71626   -1618.0977   -104213.24    15741.751 
   15000    966.51221     2238.782   -104092.14    15741.751 
   15100    965.01487   -2472.0315   -104019.85    15741.751 
   15200     953.0172    1479.9556   -104064.77    15741.751 
   15300    969.18571    4870.8818    -103998.1    15741.751 
   15400    957.60106   -6467.0596   -104024.58    15741.751 
   15500    967.45265   -105.80999    -104017.5    15741.751 
   15600    989.96835    4030.6012   -104074.43    15741.751 
   15700    932.05005   -2284.2805   -104063.67    15741.751 
   15800     977.6292   -3593.1005   -104114.81    15741.751 
   15900    957.00905   -3196.1583   -104046.39    15741.751 
   16000    988.94322    2119.3915   -104053.61    15741.751 
   16100    976.27815    3139.8197   -104105.27    15741.751 
   16200    973.55925    1386.0459    -104044.5    15741.751 
   16300    955.00025     2592.533   -104165.97    15741.751 
   16400    938.32368    1163.0088   -104178.79    15741.751 
   16500    957.80448   -3562.0387   -104152.93    15741.751 
   16600    916.95721   -1224.8779   -104179.78    15741.751 
   16700    941.86532    1508.7009   -104290.01    15741.751 
   16800    921.56559   -3180.9355   -104197.05    15741.751 
   16900    888.85211   -1954.1273   -104214.29    15741.751 
   17000    945.04316    632.74388   -104340.76    15741.751 
   17100    892.41804     3610.929   -104377.65    15741.751 
   17200    935.45186    2490.5605   -104316.47    15741.751 
   17300    922.27815    895.33051   -104242.22    15741.751 
   17400     956.5024   -2394.8312   -104181.31    15741.751 
   17500     907.9834    1151.7979   -104390.82    15741.751 
   17600    911.17052    726.08568   -104407.25    15741.751 
   17700    966.23915   -2068.0252   -104156.08    15741.751 
   17800    982.92236    1353.1314   -104114.37    15741.751 
   17900    929.87558    2795.0149   -104138.43    15741.751 
   18000    945.10919    904.75772   -104040.56    15741.751 
   18100    983.92307   -482.80101   -103987.89    15741.751 
   18200    964.37559   -2264.8057   -104007.57    15741.751 
   18300    997.88551    3363.9143   -103950.25    15741.751 
   18400    958.43015    4852.2691   -104046.76    15741.751 
   18500    959.66469   -3296.0602   -104037.66    15741.751 
   18600    984.18109    3555.9995   -103989.78    15741.751 
   18700    967.26781   -3141.2087    -104055.4    15741.751 
   18800    931.76346   -7293.5036   -104054.71    15741.751 
   18900    953.68587    774.11748   -104141.22    15741.751 
   19000     959.3883    2328.8776   -104295.13    15741.751 
   19100    950.07803   -3397.3542   -104336.06    15741.751 
   19200    921.41869    731.43023   -104329.54    15741.751 
   19300    957.69431    3334.8764   -104356.59    15741.751 
   19400    857.05347   -3485.0969   -104472.38    15741.751 
   19500    940.82615   -3817.6624   -104205.87    15741.751 
   19600    953.18175    1272.6822   -104236.47    15741.751 
   19700     921.3822   -1902.9678   -104293.46    15741.751 
   19800    918.78736   -2636.0496   -104226.69    15741.751 
   19900    942.45121    4023.7853   -104166.29    15741.751 
   20000     939.3337   -980.05142   -104192.74    15741.751 
Loop time of 691.422 on 64 procs for 20000 steps with 1250 atoms

Pair  time (%) = 648.175 (93.7453)
Neigh time (%) = 0.691021 (0.0999421)
Comm  time (%) = 41.6483 (6.02358)
Outpt time (%) = 0.0145492 (0.00210425)
Other time (%) = 0.892618 (0.129099)

Nlocal:    19.5312 ave 31 max 12 min
Histogram: 3 6 11 14 9 13 6 1 0 1
Nghost:    2469.39 ave 2528 max 2403 min
Histogram: 1 6 10 3 9 6 9 8 8 4
Neighs:    12527.1 ave 20325 max 7607 min
Histogram: 5 6 11 14 11 10 5 0 1 1

Total # of neighbors = 801737
Ave neighs/atom = 641.39
Neighbor list builds = 2000
Dangerous builds = 0
QBMSST parameters:
  Shock in z direction
  Cell mass-like parameter qmass (units of mass^2/length^4) =  2.50000e+01
  Shock velocity =  1.22000e-01
  Artificial viscosity (units of mass/length/time) =  9.00000e-01
  Initial pressure calculated on first step
  Initial volume calculated on first step
  Initial energy calculated on first step
The effective maximum frequncy is now 0.333333 inverse time unit with alpha value as 6!
Setting up run ...
Fix QBMSST v0 =  1.57418e+04
Fix QBMSST p0 = -3.22960e+03
Fix QBMSST e0 = to be -1.04193e+05
Fix QBMSST initial strain rate of -1.37645e-04 established by reducing temperature by factor of  1.00000e-02
Memory usage per processor = 41.0928 Mbytes
Step T_qm Press TotEng Volume Lx Ly Lz Pzz dhug dray lgr_vel lgr_pos 
       0          110   -1081.6053   -104192.74    15741.751    19.891812    19.891812    39.783624   -3331.1026    4.6966685   -101.50408            0            0 
     100          110   -3957.2952   -104117.58    15694.038    19.891812    19.891812     39.66304   -3439.4857   -7.3898304   -2093.5792 0.00036978073   -3.0451258 
     200          110    4650.0247   -104168.03    15657.109    19.891812    19.891812    39.569712      5463.21   -1.1500462    5351.2023 0.00065597855   -6.0821209 
     300          110    5327.8982   -104052.74    15628.159    19.891812    19.891812    39.496546    7892.9443   -17.003834    6637.9727 0.00088034963   -9.1127838 
     400          110   -3765.2405   -104197.65    15605.092    19.891812    19.891812     39.43825   -3999.8642    0.5199676    -6165.513 0.0010591214   -12.138437 
     500     104.8438   -3419.4618   -104126.86    15586.178    19.891812    19.891812    39.390451    467.47028   -8.7439465   -2444.8626 0.0012057002   -15.160047 
     600     104.8438    1482.8085   -104062.34    15570.194    19.891812    19.891812    39.350054   -974.19547   -17.916383   -4517.5895 0.0013295815   -18.178302 
     700     104.8438   -100.17563   -104115.87    15556.128    19.891812    19.891812    39.314507   -3668.1628   -11.446372   -7766.8549   0.00143859   -21.193656 
     800     104.8438    732.20834   -104111.89    15543.339    19.891812    19.891812    39.282185   -1575.5808    -11.79925   -6179.1811 0.0015377067   -24.206417 
     900    99.290127    6452.2392   -104060.31    15531.223    19.891812    19.891812    39.251563    6387.7442   -17.287342    1305.7885 0.0016316109   -27.216778 
    1000    99.290127    444.18067   -104097.08    15519.355    19.891812    19.891812     39.22157   -88.303674   -13.856734   -5638.7973 0.0017235879   -30.224824 
    1100    99.290127   -3696.7791   -104127.32    15507.423    19.891812    19.891812    39.191416   -4654.8978   -11.001845   -10676.448 0.0018160593   -33.230566 
    1200    99.290127    1604.7074   -104104.28    15495.017    19.891812    19.891812    39.160061     3819.853   -12.272545    -2691.509 0.0019122125   -36.233957 
    1300    93.895982   -684.19414   -104170.76     15482.05    19.891812    19.891812     39.12729   -3287.4094      -5.2868   -10310.697 0.0020127068   -39.234893 
    1400    93.895982   -1911.0204   -104231.33    15468.329    19.891812    19.891812    39.092613   -10.329102    3.4744619   -7575.3184 0.0021190462   -42.233248 
    1500    93.895982    151.55464    -104186.5    15453.728    19.891812    19.891812    39.055712   -7214.0778   -4.8068953   -15355.516 0.0022322069   -45.228858 
    1600    93.895982    532.47094   -104346.51    15438.012    19.891812    19.891812    39.015994   -1783.6298    17.957461   -10545.526 0.0023540067   -48.221531 
    1700    93.860815    -1580.576   -104313.39    15421.118    19.891812    19.891812    38.973299    4041.0757    15.009061   -5387.7695  0.002484933   -51.211048 
    1800    93.860815   -125.55491   -104224.72    15402.998    19.891812    19.891812    38.927504   -384.88227    1.3746614   -10529.113 0.0026253678   -54.197173 
    1900    93.860815    5281.4528    -104234.5    15383.354    19.891812    19.891812    38.877858    4663.6584    4.0779116   -6256.1094 0.0027776106   -57.179642 
    2000    93.860815     2728.979   -104254.62    15362.094    19.891812    19.891812    38.824129     1690.141    5.3569669   -10068.962 0.0029423774   -60.158152 
    2100    99.382098    507.32845   -104177.43    15339.151    19.891812    19.891812    38.766145   -807.47321   -6.4464604   -13472.359 0.0031201884   -63.132377 
    2200    99.382098   -3058.0184   -104164.81    15314.249    19.891812    19.891812    38.703213    2459.7855   -7.3798183    -11188.19 0.0033131751   -66.101967 
    2300    99.382098    1249.1319   -104265.03    15287.262    19.891812    19.891812    38.635008    3735.2885    6.0574544   -10978.148 0.0035223319   -69.066533 
    2400    99.382098    3297.8128   -104256.47    15258.109    19.891812    19.891812    38.561333    3533.5457    4.1708409   -12330.809 0.0037482643   -72.025663 
    2500    101.72461   -2873.1725   -104355.87    15226.499    19.891812    19.891812    38.481445   -2992.3799    13.490827     -20104.7  0.003993248   -74.978908 
    2600    101.72461   -622.90644   -104373.71    15192.238    19.891812    19.891812    38.394858    393.03362    16.635701   -18071.902  0.004258775   -77.925773 
    2700    101.72461    8098.9765   -104399.97    15155.226    19.891812    19.891812    38.301319     7323.443    22.966778   -12602.699 0.0045456191   -80.865735 
    2800    101.72461    2511.3128   -104415.32    15115.433    19.891812    19.891812    38.200752    4366.2868    22.126037   -17130.861 0.0048540174   -83.798254 
    2900    113.69049   -1721.5894   -104437.83    15072.712    19.891812    19.891812    38.092784     762.5094    21.382024   -22421.245 0.0051851091   -86.722773 
    3000    113.69049    2850.8813   -104434.88    15026.853    19.891812    19.891812    37.976885    2936.4485     20.71092   -22057.828 0.0055405261   -89.638707 
    3100    113.69049    3695.5703   -104598.96    14977.586    19.891812    19.891812    37.852374    4242.5755     41.77045   -22696.738 0.0059223492   -92.545434 
    3200    113.69049   -921.55656   -104635.78    14924.584    19.891812    19.891812    37.718423     270.7652    41.310747   -28761.051 0.0063331207   -95.442254 
    3300    134.43715   -2485.2078    -104429.3    14867.597    19.891812    19.891812    37.574403   -1833.7534    9.0321829   -33115.373 0.0067747716   -98.328418 
    3400    134.43715    4619.8039   -104538.92    14806.352    19.891812    19.891812    37.419621    6374.1472    27.941406   -27325.384 0.0072494229   -101.20313 
    3500    134.43715    2129.2538   -104497.88      14740.6    19.891812    19.891812    37.253449    2668.9612    15.508527   -33626.428 0.0077590064   -104.06554 
    3600    134.43715   -604.91549   -104372.87    14669.922    19.891812    19.891812    37.074825   -373.13657   -8.5600014   -39458.886 0.0083067717   -106.91473 
    3700     154.9745     372.6462   -104471.16    14593.994    19.891812    19.891812    36.882935    498.44883   0.59689326   -41584.892 0.0088952181   -109.74972 
    3800     154.9745   -180.40877   -104524.52    14512.608    19.891812    19.891812     36.67725    2372.5497    4.3660516   -42923.899 0.0095259716   -112.56946 
    3900     154.9745    2494.5547   -104376.28    14425.469    19.891812    19.891812    36.457026     8524.149   -14.066917   -40212.504  0.010201306   -115.37288 
    4000     154.9745    2561.7497   -104578.76      14332.3    19.891812    19.891812    36.221563    9095.2489     6.989136   -43319.683  0.010923375   -118.15884 
    4100    174.39297    4833.9888   -104584.38    14232.728    19.891812    19.891812    35.969919    7705.0679   -2.2625537   -48640.908  0.011695064   -120.92613 
    4200    174.39297    1706.4481   -104519.15    14126.349    19.891812    19.891812     35.70107    2047.7658    -29.43239   -58498.015  0.012519512   -123.67346 
    4300    174.39297   -923.09204   -104760.03    14012.724    19.891812    19.891812    35.413909   -1224.4526   -13.977561   -66256.105  0.013400117   -126.39946 
    4400    174.39297    4092.8717   -104794.57     13891.63    19.891812    19.891812    35.107873    7861.2885   -6.3029086   -61951.091  0.014338605   -129.10274 
    4500     205.1349    8239.9501   -104760.93    13762.578    19.891812    19.891812    34.781724    10227.804   -20.553714   -64679.492  0.015338769   -131.78179 
    4600     205.1349    6362.6216    -104807.3    13625.052    19.891812    19.891812    34.434158    15061.703   -20.600839   -65275.073  0.016404611   -134.43501 
    4700     205.1349   -2861.7431   -104807.43     13478.78    19.891812    19.891812     34.06449   -3231.7422   -79.093519   -89343.268  0.017538231   -137.06073 
    4800     205.1349    3984.9307   -104627.19    13323.129    19.891812    19.891812    33.671118    3751.1958   -110.02611   -88505.365   0.01874454   -139.65719 
    4900    246.48767    7854.6895   -104772.33    13158.106    19.891812    19.891812    33.254061    9706.1687   -101.28959    -89065.43  0.020023484   -142.22259 
    5000    246.48767    7534.7833   -104895.19    12983.244    19.891812    19.891812    32.812137     11393.18   -108.56961   -94281.899  0.021378681   -144.75505 
    5100    246.48767    10660.772   -104929.57    12798.053    19.891812    19.891812     32.34411    10171.694    -139.6364   -102814.64  0.022813927   -147.25263 
    5200    246.48767    6022.2905   -105200.87    12602.433    19.891812    19.891812    31.849726    5570.8203   -154.21756   -115138.51      0.02433   -149.71331 
    5300    294.89406    3703.6858   -105423.98    12395.846    19.891812    19.891812    31.327626    7345.0339   -161.05536   -121520.25  0.025931064   -152.13503 
    5400    294.89406    7893.2137   -105616.26    12177.988    19.891812    19.891812     30.77704    8140.4881   -180.27415   -129325.75  0.027619487   -154.51562 
    5500    294.89406    12751.269   -105785.11    11948.739    19.891812    19.891812    30.197667    13554.911   -192.20213   -132961.96  0.029396184   -156.85288 
    5600    294.89406    11153.631    -105954.6    11708.735    19.891812    19.891812    29.591112    17028.645   -216.15229    -138963.5   0.03125624   -159.14467 
    5700    387.97117    8755.4868   -106171.33    11458.138    19.891812    19.891812    28.957786    16063.606   -258.10905      -149822   0.03319839   -161.38891 
    5800    387.97117    13884.128   -106567.27    11197.077    19.891812    19.891812    28.298014     13921.89   -290.16862    -162270.3  0.035221638   -163.58357 
    5900    387.97117    21773.362   -106755.49    10925.796    19.891812    19.891812    27.612414    19636.204   -322.93354   -167266.04   0.03732409   -165.72664 
    6000    387.97117    16134.327   -107005.86    10644.995    19.891812    19.891812    26.902756    21959.991   -370.89056   -176028.14  0.039500319    -167.8162 
    6100    542.99023    19514.115   -107305.93    10355.373    19.891812    19.891812    26.170802    22925.098    -427.8298   -186497.21  0.041744922   -169.85047 
    6200    542.99023    33316.396   -107632.11    10058.933    19.891812    19.891812    25.421619    41192.366   -395.97005   -179933.27  0.044042358   -171.82794 
    6300    542.99023    40935.362   -107992.32    9756.8099    19.891812    19.891812    24.658074    54074.534    -390.5886   -178978.77  0.046383836   -173.74741 
    6400    542.99023    44767.821   -108504.76    9450.5803    19.891812    19.891812     23.88415    46733.274   -491.65842   -198409.84  0.048757143   -175.60792 
    6500    777.35668    46155.427   -108807.84     9142.122    19.891812    19.891812    23.104593    51088.782   -560.30013   -206232.14  0.051147724   -177.40882 
    6600    777.35668    61420.683   -109357.89    8832.9724    19.891812    19.891812    22.323289    74800.305   -471.92592   -194725.71  0.053543661   -179.14986 
    6700    777.35668    63703.907   -110018.89    8526.2729    19.891812    19.891812    21.548177     72700.11   -545.28089   -208934.27   0.05592061   -180.83121 
    6800    777.35668    80952.219   -110663.81    8224.1765    19.891812    19.891812    20.784699    75472.783   -592.83569   -218088.23  0.058261884   -182.45353 
    6900    1127.8607    113866.48   -111077.19    7928.6455    19.891812    19.891812    20.037812    119503.64   -361.50585   -185724.82  0.060552277   -184.01792 
    7000    1127.8607     110024.6   -111603.48    7644.6449    19.891812    19.891812    19.320067       117489   -460.34526   -198951.68  0.062753307   -185.52612 
    7100    1127.8607    126702.34   -112240.71     7374.323    19.891812    19.891812    18.636891    129875.92   -424.68266   -197236.95  0.064848326    -186.9806 
    7200    1127.8607    156158.09   -112836.73    7119.1248    19.891812    19.891812    17.991937    175501.09   -106.61755   -161686.89  0.066826136   -188.38417 
    7300    1629.4902    167882.85   -113443.76    6880.9254    19.891812    19.891812    17.389943    164638.01    -252.8131   -181953.98  0.068672203   -189.73992 
    7400    1629.4902    204476.04   -113899.83    6661.2711    19.891812    19.891812    16.834818    208190.65    65.789089    -147073.2  0.070374543   -191.05128 
    7500    1629.4902    227127.82   -114213.88    6463.3352    19.891812    19.891812    16.334581    235033.11    237.99659   -128045.17  0.071908564    -192.3222 
    7600    1629.4902    242564.65   -114953.89    6288.2103    19.891812    19.891812    15.891993    240643.69    290.32288   -129348.44  0.073265798   -193.55696 
    7700    2279.6158     262329.6   -114894.39     6135.121    19.891812    19.891812    15.505095    274912.72    518.42605   -101123.32  0.074452255      -194.76 
    7800    2279.6158    280750.05   -115142.73    6003.7827    19.891812    19.891812    15.173168    276357.88    493.20514   -104863.33  0.075470138   -195.93547 
    7900    2279.6158    303916.32   -115303.79    5894.1446    19.891812    19.891812    14.896083    311087.53    789.99862   -74462.144  0.076319844   -197.08764 
    8000    2279.6158    320798.62   -115499.01    5804.3072    19.891812    19.891812     14.66904     334452.8    996.94148   -54643.622  0.077016091   -198.22055 
    8100     3014.311    340649.21   -115083.49    5733.2399    19.891812    19.891812    14.489434    357841.98    1135.1451   -34060.149   0.07756687   -199.33791 
    8200     3014.311    371174.14   -114834.92    5677.7701    19.891812    19.891812    14.349247    372967.14    1224.8407   -21124.908  0.077996766   -200.44306 
    8300     3014.311    369840.83    -114554.5    5634.8179    19.891812    19.891812    14.240695    362603.67    1065.4629   -33184.119  0.078329649   -201.53877 
    8400     3014.311    395416.79   -113915.05     5599.148    19.891812    19.891812    14.150548    378689.17    1123.7045   -18506.847  0.078606094   -202.62696 
    8500    3725.0021    395951.02   -113063.59    5568.3715    19.891812    19.891812    14.072767    385997.31    1068.7997   -12413.754  0.078844615   -203.70871 
    8600    3725.0021     386427.2   -112736.34    5547.3283    19.891812    19.891812    14.019586    387698.23    1032.5316   -11543.607  0.079007701   -204.78536 
    8700    3725.0021    420482.18    -111563.4    5537.4532    19.891812    19.891812    13.994629    433344.31    1326.8116    33712.606  0.079084234   -205.85905 
    8800    3725.0021    395845.27   -111347.25     5534.688    19.891812    19.891812     13.98764    396004.64    923.50023   -3736.2368  0.079105665   -206.93161 
    8900    4278.8254       404913    -110342.7    5537.8168    19.891812    19.891812    13.995548    411140.86    941.10917    11523.517  0.079081416   -208.00419 
    9000    4278.8254    404344.88   -109429.05    5544.9065    19.891812    19.891812    14.013465    389748.04    607.60849    -9589.403   0.07902647   -209.07774 
    9100    4278.8254    413455.53   -109086.44    5554.1245    19.891812    19.891812    14.036761    420899.54    876.12845    21926.015   0.07895503   -210.15297 
    9200    4278.8254    412365.21   -108211.54    5567.2023    19.891812    19.891812    14.069813    422602.28    780.64453    24145.062  0.078853676   -211.23027 
    9300    4646.4953    425170.12   -107504.99    5585.8074    19.891812    19.891812    14.116833    414798.38    615.30827    17075.682  0.078709485   -212.31065 
    9400    4646.4953    406867.87   -106992.81    5602.2361    19.891812    19.891812    14.158352    405986.61    464.82544    8912.5133  0.078582161   -213.39464 
    9500    4646.4953    382052.89   -106412.76    5613.7249    19.891812    19.891812    14.187388    377404.33    107.69454   -19216.198  0.078493122   -214.48123 
    9600    4646.4953    415419.41    -105530.4    5623.4674    19.891812    19.891812     14.21201    421832.73    433.43116     25596.83  0.078417616   -215.56988 
    9700    4834.3929    418860.28   -104904.32    5634.5205    19.891812    19.891812    14.239944     425059.7    385.48007    29260.177  0.078331954   -216.66046 
    9800    4834.3929    385889.03   -104667.11    5646.8864    19.891812    19.891812    14.271196    406911.87    178.67921    11600.544  0.078236117   -217.75338 
    9900    4834.3929    383673.51   -103610.43    5660.8067    19.891812    19.891812    14.306376     355807.5   -462.55586    -38954.26  0.078128233   -218.84883 
   10000    4834.3929    403740.48   -102818.66    5675.1703    19.891812    19.891812    14.342677    404838.46   -79.271095    10643.769  0.078016914   -219.94692 
Loop time of 836.616 on 64 procs for 10000 steps with 1250 atoms

Pair  time (%) = 798.227 (95.4114)
Neigh time (%) = 0.5229 (0.0625018)
Comm  time (%) = 33.7325 (4.03201)
Outpt time (%) = 1.23162 (0.147215)
Other time (%) = 2.90209 (0.346885)

Nlocal:    19.5312 ave 27 max 13 min
Histogram: 2 2 12 8 5 22 4 7 1 1
Nghost:    6151.31 ave 6194 max 6116 min
Histogram: 4 5 10 8 9 11 7 7 1 2
Neighs:    34988.2 ave 48313 max 23387 min
Histogram: 2 2 12 8 15 12 4 7 1 1

Total # of neighbors = 2239245
Ave neighs/atom = 1791.4
Neighbor list builds = 1000
Dangerous builds = 0
