LAMMPS (15 May 2015)
Lattice spacing in x,y,z = 7.374 4.25738 5.4054
Created orthogonal box = (0 0 0) to (4.916 8.51476 5.4054)
  2 by 4 by 2 MPI processor grid
Created 18 atoms
Replicating atoms ...
  orthogonal box = (0 0 0) to (19.664 34.059 21.6216)
  2 by 4 by 2 MPI processor grid
  1152 atoms
Setting atom values ...
  384 settings made for charge
Setting atom values ...
  768 settings made for charge
PPPM initialization ...
  G vector (1/distance) = 0.300319
  grid = 18 25 18
  stencil order = 5
  estimated absolute RMS force accuracy = 0.00126535
  estimated relative force accuracy = 8.78739e-05
  using single precision FFTs
  3d grid and FFT values/proc = 3328 900
The effective maximum frequncy is now 125.000000 inverse time unit with alpha value as 4!
Neighbor list info ...
  1 neighbor list requests
  update every 1 steps, delay 0 steps, check yes
  master list distance cutoff = 12
Setting up run ...
Memory usage per processor = 78.026 Mbytes
Step Temp Press TotEng Volume Lx Ly Lz Pxx Pyy Pzz Pxy Pyz Pxz 
       0            0   -34030.833    -22348.83    14480.788       19.664    34.059048      21.6216   -37467.807   -37481.948   -27142.743 -2.591512e-05   0.97662183 -6.2451685e-06 
     100    176.10531    9195.7827   -22337.742    14679.268    19.753434    34.213952    21.719937    5857.8988    6480.7218    15248.728   -95.650251   -70.771009   -1027.8567 
     200    155.36955    46241.309   -22328.149    14917.448    19.859698    34.398007     21.83678    44666.027    45578.223    48479.678    -996.6365    78.363539    732.79413 
     300    174.95714    24713.667   -22319.129    14938.264    19.868932       34.414    21.846933    27903.775     25940.06    20297.165    1532.8683    492.05135   -842.46086 
     400    249.48946   -23098.157   -22309.959    14815.046    19.814151    34.319117    21.786699   -22290.051   -22800.246   -24204.175   -221.95713    208.82753   -108.41621 
     500    224.91049   -44529.465   -22301.298    14876.868    19.841674    34.366788    21.816961   -50006.849   -48807.048   -34774.497    -263.8331   -1235.4378    1349.3641 
     600     285.1503   -17749.603   -22293.268    14960.347    19.878717    34.430949    21.857693   -21216.455   -19609.044   -12423.308    914.15105   -218.80925   -1102.0792 
     700    308.12145    18569.103   -22284.722    14934.588    19.867301    34.411176    21.845141    21524.836    20866.866    13315.608   -958.49154   -1257.2668     2171.983 
     800    323.34634    24717.737   -22279.086    14839.874    19.825213    34.338277    21.798862    25807.032    26219.266    22126.912   -590.49682    1850.8275    147.75887 
     900    353.55643    5332.0223   -22273.039    14839.379    19.824993    34.337896     21.79862    6076.9836    686.79302    9232.2902     871.7111   -141.99504   -757.74185 
    1000    366.96529   -13663.735   -22268.815    14923.093    19.862203    34.402345    21.839534   -13624.752   -17883.634   -9482.8181   -543.18542   -464.03876   -1660.4191 
    1100    376.49592   -10471.542   -22264.043    14986.143    19.890136    34.450727    21.870249   -10220.044   -9782.1533   -11412.428    66.142245   -413.13917    2307.2259 
    1200    386.78561    4987.5934    -22259.49    14960.054    19.878587    34.430724     21.85755    872.11196    10160.525    3930.1431    1377.6316    2024.3134    238.15987 
    1300    414.74975    8216.5316   -22254.911    14912.748    19.857612    34.394394    21.834487    9588.8695    6630.1856    8430.5397     -387.969    3111.2585    837.06939 
    1400    407.72422    247.53299   -22252.398    14915.668    19.858908    34.396639    21.835912    1883.2339   -3256.7352    2116.1003   -687.93938   -2072.6257    2097.2832 
    1500    427.51579   -8560.7575   -22249.666    14975.468    19.885412    34.442545    21.865054   -11872.676   -6069.9519   -7739.6442    1300.6078   -2707.7469   -484.01152 
    1600     442.1218    -1508.131   -22247.526    14967.966    19.882091    34.436793    21.861403    -771.4932   -3976.0037    223.10377    908.22738    1499.6051    313.94282 
    1700    444.95823    4785.8357   -22243.517    14933.692    19.866904    34.410488    21.844704    4943.4738    4155.8291    5258.2042   -955.20786    -111.8536    325.51086 
    1800     450.2629    3938.7973   -22241.121    14943.596    19.871295    34.418093    21.849532    2116.4604     4205.651    5494.2806    -1073.908   -2808.0153    -2576.463 
    1900    477.44941    743.64901    -22238.19    14965.573    19.881032    34.434958    21.860238    3016.6599    -856.1193    70.406433    652.29099    290.91943    1438.0432 
    2000    470.93096   -1643.5197   -22235.641    14970.117    19.883044    34.438442     21.86245   -3531.3211    140.43829   -1539.6762   -371.69921     5344.791    952.94454 
    2100    470.39961    92.900915    -22233.66     14979.95    19.887396    34.445981    21.867236    371.99988   -1516.9523    1423.6552    1171.9032   -4399.7769     -1011.03 
    2200    488.43813    2531.8995   -22231.358    14958.465    19.877883    34.429505    21.856776   -1039.2824    4141.2681    4493.7129   -471.88534    1555.0287    1337.7905 
    2300    480.06742    2182.7879   -22230.323    14956.531    19.877027    34.428022    21.855834    4679.5422   -482.05255    2350.8741   -115.21744   -922.66097    3819.2514 
    2400    501.41106    3123.8653   -22228.021    14971.631    19.883714    34.439604    21.863187    2181.3661    3081.2761    4108.9537    3123.1394    6320.9182   -1349.6463 
    2500    509.34613     1136.587    -22227.29    14985.844    19.890004    34.450498    21.870103     943.7684     -2539.33    5005.3226   -1870.3098   -2846.3111   -500.59782 
    2600    495.03643    2449.9803   -22226.099    14957.891    19.877629    34.429065    21.856497   -2857.6871    7063.6026    3144.0255   -1313.9801   -1536.0979    2638.8717 
    2700    509.19571   -2197.8128   -22224.931    14980.577    19.887673    34.446462    21.867541   -1335.2228   -2555.9032   -2702.3123    2003.8649   -1414.0265    3211.6398 
    2800    509.62262   -104.56207   -22223.217    14996.127    19.894552    34.458376    21.875104    792.57251   -1700.6542    594.39547   -1947.6655    1131.6478    772.03452 
    2900    514.47803   -214.23318   -22224.632     15037.22    19.912708    34.489822    21.895067   -1315.6378   -199.50419     872.4425    1599.3491    -1313.477   -2730.7827 
    3000    501.82887    3124.5551   -22222.597    14983.568    19.888997    34.448754    21.868996    4718.4192    1450.1827    3205.0634   -639.34187   -2149.0223    6655.2885 
    3100    529.99237   -1757.3124   -22221.842    14984.545    19.889429    34.449503    21.869471   -1360.6587   -2168.4989   -1742.7795    1407.3384    3424.5865   -40.687793 
    3200    492.60828   -2357.2843   -22221.512    14990.084    19.891879    34.453747    21.872165   -6030.6122   -2221.4159    1180.1751   -2184.2806    3569.1188   -1989.9962 
    3300    526.05932    -1878.338   -22221.057    15013.556    19.902256     34.47172    21.883575   -2519.1368    -3172.019    56.141952    2213.9878    -4394.192   -151.91085 
    3400    530.48123    3854.5917   -22220.346    14992.541    19.892966    34.455629     21.87336    5469.3177    3009.4984    3084.9591   -4417.4602   -1434.7398    5832.3656 
    3500    539.29108    7304.2738   -22220.295    14969.109    19.882597     34.43767    21.861959    7293.4295     7218.314    7401.0777    1992.8243    3095.9439   -6611.6903 
    3600    531.07584    3784.1027   -22219.527    15000.383    19.896434    34.461635    21.877173    438.40294    6071.4606    4842.4445   -638.31429    5174.3972   -2029.4617 
    3700    532.55025   -2811.5858   -22218.979    15015.092    19.902935    34.472896    21.884322   -1720.4741   -4367.3003   -2346.9831     638.8477   -888.69304    526.75595 
    3800    504.15687    -3085.112   -22220.836    15002.001     19.89715    34.462875     21.87796   -1926.8509   -5724.2205   -1604.2644   -424.77391    127.82656    1691.9013 
    3900    537.04554    1339.3658    -22220.89    14965.184    19.880859    34.434659    21.860048    1203.3017    14.398349    2800.3973    -2141.394    85.140106   -4100.3718 
    4000      525.969    3089.5783   -22219.006    14983.471    19.888954     34.44868    21.868949    1956.1285    5126.6343    2185.9722   -1385.6181    150.31019    2345.9751 
    4100    529.48297   -167.62902   -22218.314    15011.618      19.9014    34.470237    21.882634   -2191.5749    998.93505     689.7528    1813.7751   -1896.4037    574.25788 
    4200    543.78106    1909.9365   -22217.101    14993.373    19.893334    34.456267    21.873765   -1552.3019    3302.1998    3979.9116   -116.23499   -2442.8253   -1179.5388 
    4300    517.11038    1976.7292   -22219.672    14954.704    19.876217    34.426619    21.854944    1806.2193    1698.1607    2425.8077   -2522.2398    292.84241    -1972.765 
    4400    527.20587   -2965.4302   -22217.816    15005.529    19.898709    34.465576    21.879675   -2388.2293   -2720.7385   -3787.3228   -2065.5719   -1688.4829    3229.3292 
    4500    533.26445   -4945.6848   -22217.662    15033.711    19.911159    34.487139    21.893364   -5524.8422   -4833.7009   -4478.5112   -586.98596    567.10344    441.92706 
    4600    519.25653   -640.66433   -22217.486    15019.003    19.904663    34.475889    21.886222   -2558.1802    836.12751   -199.94031    105.16457   -1369.3953   -3176.4334 
    4700    540.21631    4010.5713   -22217.351    14966.653     19.88151    34.435786    21.860764    1400.7717    4413.2279    6217.7144    4268.3991    2560.9863   -1450.5117 
    4800    533.67565    1663.5504   -22215.753    14986.302    19.890207    34.450849    21.870326    4155.2082    -2061.588    2897.0309   -2688.8144   -940.54634      7321.23 
    4900    536.77279   -2506.3375   -22215.138     15023.83    19.906796    34.479582    21.888566   -4205.1194   -1370.4845   -1943.4086   -2807.1594      194.424   -4172.8693 
    5000     553.0151    -975.0882   -22216.372    15017.657    19.904069    34.474859    21.885568   -1374.7852    650.91179   -2201.3912   -1966.2611   -1196.8017   -3357.1493 
    5100    539.99068   -3482.2194   -22214.827    15037.566    19.912861    34.490087    21.895235    -4691.892    -2598.173   -3156.5933    4310.8498    2965.3505   -2866.9777 
    5200    555.88127   -2530.4316   -22214.178    15012.264    19.901686    34.470732    21.882948   -3499.4128   -3300.6001   -791.28192   -2775.8874   -657.18069    4450.7969 
    5300    546.94322    1973.8879   -22214.004    15003.985    19.898027    34.464394    21.878925     1970.123    1868.8582    2082.6825    2046.3279   -952.21623    -2510.562 
    5400    544.34556    1843.9981   -22213.251    14998.316     19.89552    34.460053    21.876169      2021.47     158.2291    3352.2951   -109.93182     1862.227   -895.62172 
    5500    548.74746   -938.53035   -22212.356    15002.595    19.897412     34.46333    21.878249   -4062.0787    384.00579    862.48189   -337.77513     1735.629    1152.4251 
    5600    544.42455   -264.31765   -22212.896    14971.575    19.883689     34.43956     21.86316   -791.79084   -513.69293    512.53084    325.61831   -2177.9751    2789.8381 
    5700    558.74896    3941.8075   -22213.357    14970.807    19.883349    34.438972    21.862786    4401.4405    5105.6933    2318.2885    1117.5311   -1228.5661   -2269.6337 
    5800    551.07693    885.02186   -22213.901    15010.424    19.900873    34.469323    21.882054    8670.8337    -6251.778    236.00989   -1238.7825    90.198831    1815.0589 
    5900    543.10773   -207.29433   -22214.358    15025.061    19.907339    34.480524    21.889164    -3347.961    913.46066    1812.6173   -50.313076    5914.5852    2393.8454 
    6000    538.43478    161.47104   -22215.891    14995.028    19.894066    34.457535     21.87457    -1610.833   -16.720133    2111.9663    119.52083   -2139.5778   -2949.3085 
    6100    528.93669    1601.6704   -22215.985     14963.08    19.879928    34.433045    21.859024    1551.1479    1673.2246    1580.6387    1705.8603   -5252.0892    186.91264 
    6200    529.89047   -1210.2906   -22214.027     14966.64    19.881504    34.435776    21.860757   -985.66435    -2688.954    43.746692   -523.25386    15.750099   -1619.4643 
    6300    518.78843   -4798.0843   -22214.194    15062.721    19.923958    34.509308    21.907437   -5586.6341   -4804.3998    -4003.219   -4234.6076    1142.0902   -1412.9255 
    6400    553.42622   -374.11629   -22213.388    15049.015    19.917913    34.498837     21.90079   -945.30986    225.74822   -402.78722    3334.2498   -2691.7863   -2586.4737 
    6500    550.53759    3125.4545   -22214.047    14985.403    19.889809     34.45016    21.869889     4980.461     1293.322    3102.5807   -629.51642   -1861.6509   -195.23071 
    6600    531.68196    2312.1962   -22213.989    14928.053    19.864403    34.406157    21.841954    4525.7098    2275.3104     135.5685    462.90629    3356.0621    520.66341 
    6700    541.34068   -1921.7083    -22214.62    14978.779    19.886878    34.445084    21.866666   -4171.4478   -533.26641   -1060.4106    2880.2856   -3359.8296    668.32656 
    6800    546.22555    629.18607   -22214.478    15035.511    19.911953    34.488515    21.894237   -1795.1414    650.06088    3032.6387    926.74119    1191.2272   -862.28617 
    6900    533.21787    4130.7085   -22216.726    15014.182    19.902533      34.4722     21.88388    3248.1078    3556.0346    5587.9831   -1066.6091   -2900.1607    1253.8203 
    7000    522.40503    4181.3464     -22218.6    14972.519    19.884107    34.440284    21.863619   -321.58288    9029.6108    3836.0111    2290.4397   -973.89131   -677.24801 
    7100    523.93299    2059.7379   -22217.423    14938.528    19.869048    34.414202    21.847061    4259.8118   -1262.5067    3181.9087   -1454.3059    1597.1292    1058.9223 
    7200    529.35797   -4225.2474   -22219.697    14990.455    19.892044    34.454031    21.872346   -2444.6158    -7986.531   -2244.5953     983.4663     4146.724    648.47441 
    7300    537.19166   -3011.2591   -22219.229    15058.843    19.922248    34.506346    21.905557   -2051.1161   -4921.8677   -2060.7937    440.95978   -1765.1795    1648.3502 
    7400     516.3934    4410.7264   -22219.928    15046.296    19.916713     34.49676    21.899471    6390.1482    4588.7364    2253.2947   -2199.4628   -2357.3941    319.97425 
    7500    535.60398     257.1492   -22218.325    15006.288    19.899045    34.466157    21.880044   -3326.9521    2666.7794    1431.6203    1519.3312    1433.8177   -156.80151 
    7600    527.73115    124.24131   -22218.108    14948.266    19.873365    34.421679    21.851808   -4647.9378    3042.1972    1978.4646    2227.3007    1783.7764   -1402.6065 
    7700    534.30875    389.09995   -22216.352    14967.754    19.881997    34.436631      21.8613    1358.3815   -1059.6949    868.61325   -1750.4684    391.60315    1655.2244 
    7800    530.83342   -3653.3439   -22216.916    15033.807    19.911201    34.487212     21.89341   -1964.6198   -5435.7707   -3559.6412    1378.6089    745.80261   -517.11135 
    7900    533.23298   -3122.9528   -22217.061    15063.741    19.924407    34.510087    21.907931   -5378.2615   -3212.6274   -777.96936   -1079.1672    2265.9419    645.64646 
    8000     542.9836    1005.5099    -22217.52    14991.743    19.892613    34.455018    21.872973    2215.3693    -372.4759    1173.6362   -937.09889    977.68959   -62.635466 
    8100    542.41785    4456.2517   -22218.416    14930.604    19.865535    34.408116    21.843198    2990.7707    7359.6736     3018.311     2424.427   -173.27244   -1758.4408 
    8200    524.00152    4334.2779   -22218.511    14950.047    19.874154    34.423046    21.852676    1380.7568    6109.9479    5512.1289   -360.37674   -1471.5924    2423.9453 
    8300    543.39948    1113.7113   -22216.691    15033.896     19.91124    34.487281    21.893454    1389.1735     538.0031    1413.9572    74.137118   -1003.1428    678.21904 
    8400    530.82065    445.32015   -22216.246    15022.802    19.906341    34.478795    21.888067   -2130.9157    1701.6589    1765.2172   -2069.0809   -2690.2579    2338.9708 
    8500    531.52582    3588.5709    -22216.93     14979.16    19.887047    34.445376    21.866851   -146.92643    8553.2409    2359.3981    3499.0499    2247.1812   -4735.2164 
    8600     538.8125    1156.9793   -22215.025     14974.22     19.88486    34.441589    21.864447    5414.6678   -2496.3702    552.64017   -853.69023   -395.74145    1485.9497 
    8700    527.23631   -5117.6708   -22214.115    15023.644    19.906713     34.47944    21.888476   -5460.0457   -5434.4917   -4458.4751   -78.199956    2038.7937   -849.71895 
    8800    540.22886   -3905.8405   -22213.234    15058.185    19.921958    34.505844    21.905238   -4848.6394   -5259.6306   -1609.2514   -2762.2886   -2962.0588   -1992.0347 
    8900    517.10358   -780.41602   -22215.964    15056.415    19.921177    34.504491    21.904379   -327.53221   -582.08545   -1431.6304   -1868.9118    1000.8471   -379.05473 
    9000    529.11457    975.43397   -22216.625    15006.778    19.899261    34.466533    21.880282    -220.1875    1880.6485    1265.8409    4118.7856    1548.0454   -189.42655 
    9100    533.36119    4345.9156   -22215.414    14956.803    19.877147     34.42823    21.855967   -721.74765     8204.224    5555.2704   -517.30951    340.06653    131.07438 
    9200    551.23976    2447.2567    -22213.84    14977.371    19.886255    34.444004    21.865981    2601.8269    710.97176    4028.9714     3037.298   -2819.8361    353.46367 
    9300    553.10379    3079.4557   -22212.404    15009.861    19.900624    34.468893     21.88178    5910.5007   -493.16169    3821.0281    2609.6192     2634.666    2048.3617 
    9400    533.96078     1648.593   -22214.282    14993.685    19.893472    34.456506    21.873917    3235.2483   -937.16373    2647.6945   -2530.6262    29.227758    218.32829 
    9500    547.47842   -674.71583   -22214.225    14988.564    19.891207    34.452583    21.871426   -4511.6297    3189.0121   -701.52994    273.53282   -1666.6528   -2848.7168 
    9600    547.52473   -3361.4021   -22213.852    15038.247    19.913161    34.490607    21.895566   -2725.4767   -5121.0741   -2237.6556    616.93512    -4286.401   -3518.2743 
    9700    549.92673   -1273.4241    -22213.93     15065.74    19.925289    34.511613      21.9089   -3499.0444   -900.81008     579.5821    467.42589   -1675.7548    718.08276 
    9800    522.62691    3770.8178   -22214.507    15001.722    19.897026    34.462661    21.877825    5446.7484    826.46861    5039.2365    1093.1305    -4827.103    1299.2798 
    9900    536.49812     2299.028   -22214.303    14969.687    19.882853    34.438113     21.86224    1160.1207    3736.9034    2000.0599   -4489.2538    2769.6327   -358.48389 
   10000    547.26866   -3118.8354   -22214.725    15007.584    19.899617    34.467149    21.880674   -623.06146   -4267.4186   -4466.0261   -1347.4057   -1256.3773    444.03437 
Loop time of 17.3911 on 16 procs for 10000 steps with 1152 atoms

Pair  time (%) = 8.4029 (48.3171)
Kspce time (%) = 4.5651 (26.2496)
Neigh time (%) = 0.000641182 (0.00368683)
Comm  time (%) = 1.3987 (8.04261)
Outpt time (%) = 0.00390306 (0.0224428)
Other time (%) = 3.01991 (17.3646)

Nlocal:    72 ave 76 max 68 min
Histogram: 1 0 0 7 0 3 2 1 1 1
Nghost:    2932.56 ave 2944 max 2923 min
Histogram: 3 0 2 5 0 0 2 1 1 2
Neighs:    20215 ave 23012 max 18129 min
Histogram: 2 1 4 1 0 4 1 1 1 1

Total # of neighbors = 323440
Ave neighs/atom = 280.764
Neighbor list builds = 1
Dangerous builds = 0
