LAMMPS (15 May 2015)
Lattice spacing in x,y,z = 3.97836 3.97836 3.97836
Created orthogonal box = (0 0 0) to (3.97836 3.97836 3.97836)
  2 by 2 by 4 MPI processor grid
Created 5 atoms
Replicating atoms ...
  orthogonal box = (0 0 0) to (15.9134 15.9134 15.9134)
  2 by 2 by 4 MPI processor grid
  320 atoms
The effective maximum frequncy is now 0.333333 inverse time unit with alpha value as 6!
Neighbor list info ...
  1 neighbor list requests
  update every 10 steps, delay 0 steps, check no
  master list distance cutoff = 12.5
Setting up run ...
Memory usage per processor = 41.0188 Mbytes
Step Temp Press TotEng Volume 
       0          110   -15720.474   -28382.788    4029.8882 
     100    239.81691    8326.3989   -28121.475    4029.8882 
     200    318.91467    683.58232   -27937.966    4029.8882 
     300    390.52815   -8267.6565   -27772.759    4029.8882 
     400    459.51294    7436.5758   -27637.368    4029.8882 
     500     561.2416   -77.674238    -27507.23    4029.8882 
     600    590.22933   -4297.0014   -27364.203    4029.8882 
     700    687.98356    938.13459   -27249.094    4029.8882 
     800    701.64324     2026.778    -27117.67    4029.8882 
     900    778.15208    7676.4819   -27036.219    4029.8882 
    1000    797.90511   -1162.9729   -27002.183    4029.8882 
    1100    750.06856   -4506.1484    -27018.62    4029.8882 
    1200    775.96188    4924.6129   -26966.827    4029.8882 
    1300    786.96578    1108.9441   -26994.419    4029.8882 
    1400    804.14948   -7705.0297   -26970.136    4029.8882 
    1500    788.90876   -770.31346   -26945.043    4029.8882 
    1600    827.46519    2461.5663   -26921.191    4029.8882 
    1700    846.11793    -5694.314   -26963.406    4029.8882 
    1800    907.99662    -7330.648   -26865.168    4029.8882 
    1900     887.1344    14013.695    -26848.42    4029.8882 
    2000    916.38999    260.19203   -26844.463    4029.8882 
    2100    876.34588   -2103.0438   -26797.285    4029.8882 
    2200    853.78077    813.62982   -26797.447    4029.8882 
    2300    866.09863   -3732.2045   -26779.918    4029.8882 
    2400    853.24255    2927.5205   -26790.743    4029.8882 
    2500    832.35476    8821.4483    -26817.08    4029.8882 
    2600    884.49214   -596.75967   -26759.558    4029.8882 
    2700    1008.8169    89.287122   -26629.564    4029.8882 
    2800    969.38405    1985.5699   -26671.563    4029.8882 
    2900    971.04796    2997.9078   -26698.483    4029.8882 
    3000    950.07426    4066.2506   -26704.622    4029.8882 
    3100    909.18289   -12171.267   -26675.422    4029.8882 
    3200     971.9082   -5602.3993   -26691.734    4029.8882 
    3300    986.76819    4620.3856   -26651.663    4029.8882 
    3400    956.17545    3752.2492   -26611.952    4029.8882 
    3500    1012.3994     3337.918   -26583.214    4029.8882 
    3600    1054.6967    3698.1324   -26541.455    4029.8882 
    3700    1024.2051   -4794.1961   -26550.374    4029.8882 
    3800    915.31273    -7548.159   -26628.841    4029.8882 
    3900    951.27383    1866.4146   -26633.216    4029.8882 
    4000    1021.1452   -914.75815   -26649.479    4029.8882 
Loop time of 110.761 on 16 procs for 4000 steps with 320 atoms

Pair  time (%) = 102.861 (92.8671)
Neigh time (%) = 0.14059 (0.126931)
Comm  time (%) = 7.66936 (6.92424)
Outpt time (%) = 0.00138731 (0.00125253)
Other time (%) = 0.0891377 (0.0804775)

Nlocal:    20 ave 24 max 17 min
Histogram: 1 1 5 0 3 4 0 1 0 1
Nghost:    2366.62 ave 2386 max 2341 min
Histogram: 1 0 1 3 1 2 2 3 1 2
Neighs:    12803.9 ave 15219 max 10946 min
Histogram: 1 1 4 1 3 4 0 1 0 1

Total # of neighbors = 204863
Ave neighs/atom = 640.197
Neighbor list builds = 400
Dangerous builds = 0
